<?xml version="1.0"?>
<VTKFile type="UnstructuredGrid" version="0.1" byte_order="LittleEndian">
<UnstructuredGrid>
<FieldData>
<DataArray type="Float32" Name="TIME" NumberOfTuples="1" format="ascii">
   15.0376053    
</DataArray>
</FieldData>
<Piece NumberOfPoints="     81" NumberOfCells="     64">
<CellData>
<DataArray type="Float64" Name="rho" format="ascii">
  4.000198E+06  4.000200E+06  4.000204E+06  4.000210E+06  4.000217E+06  4.000224E+06  4.000232E+06  4.000241E+06  4.000214E+06  4.000215E+06  4.000219E+06  4.000225E+06  4.000231E+06  4.000238E+06  4.000247E+06  4.000259E+06  4.000213E+06  4.000213E+06  4.000215E+06  4.000218E+06  4.000223E+06  4.000231E+06  4.000240E+06  4.000252E+06  4.000206E+06  4.000203E+06  4.000201E+06  4.000201E+06  4.000204E+06  4.000211E+06  4.000221E+06  4.000232E+06  4.000190E+06  4.000186E+06  4.000181E+06  4.000179E+06  4.000179E+06  4.000183E+06  4.000193E+06  4.000204E+06  4.000171E+06  4.000166E+06  4.000161E+06  4.000157E+06  4.000156E+06  4.000158E+06  4.000166E+06  4.000175E+06  4.000147E+06  4.000143E+06  4.000137E+06  4.000133E+06  4.000131E+06  4.000132E+06  4.000138E+06  4.000146E+06  4.000106E+06  4.000103E+06  4.000098E+06  4.000095E+06  4.000093E+06  4.000094E+06  4.000099E+06  4.000104E+06
</DataArray>
<DataArray type="Float64" Name="v1" format="ascii">
 -2.079952E-07 -6.200482E-07 -1.213739E-06 -1.880385E-06 -2.682125E-06 -3.581458E-06 -4.522306E-06 -5.447955E-06 -2.358239E-07 -6.682019E-07 -1.270170E-06 -1.935395E-06 -2.728553E-06 -3.620463E-06 -4.564686E-06 -5.508077E-06 -2.685873E-07 -7.292601E-07 -1.318786E-06 -1.976192E-06 -2.760317E-06 -3.656999E-06 -4.649628E-06 -5.702250E-06 -2.959998E-07 -7.802266E-07 -1.341916E-06 -1.987380E-06 -2.757743E-06 -3.663698E-06 -4.733481E-06 -5.986413E-06 -3.137388E-07 -7.879722E-07 -1.340173E-06 -1.962971E-06 -2.697204E-06 -3.613544E-06 -4.756905E-06 -6.243616E-06 -3.091291E-07 -7.578410E-07 -1.271906E-06 -1.857158E-06 -2.546158E-06 -3.432899E-06 -4.624693E-06 -6.299209E-06 -2.643674E-07 -6.413768E-07 -1.077751E-06 -1.581476E-06 -2.220796E-06 -3.031261E-06 -4.208116E-06 -5.958469E-06 -1.750721E-07 -4.143399E-07 -7.151901E-07 -1.091060E-06 -1.601238E-06 -2.323252E-06 -3.388826E-06 -5.094054E-06
</DataArray>
<DataArray type="Float64" Name="v2" format="ascii">
 -7.800988E-07 -8.146191E-07 -8.583960E-07 -9.137555E-07 -9.697679E-07 -1.018412E-06 -1.056866E-06 -1.084812E-06  7.588936E-07  7.074642E-07  6.469017E-07  5.783090E-07  5.101606E-07  4.447161E-07  3.722079E-07  2.705099E-07  2.440057E-06  2.378289E-06  2.312508E-06  2.251020E-06  2.199155E-06  2.149679E-06  2.069172E-06  1.908259E-06  4.221664E-06  4.160500E-06  4.105605E-06  4.071415E-06  4.060842E-06  4.066002E-06  4.026811E-06  3.862834E-06  6.093073E-06  6.048804E-06  6.031533E-06  6.058944E-06  6.131503E-06  6.233163E-06  6.300608E-06  6.219139E-06  7.934285E-06  7.926268E-06  7.981887E-06  8.124622E-06  8.343424E-06  8.607228E-06  8.858442E-06  8.982289E-06  9.610287E-06  9.646592E-06  9.779952E-06  1.005569E-05  1.047350E-05  1.097926E-05  1.152397E-05  1.204520E-05  1.098059E-05  1.108303E-05  1.136574E-05  1.186333E-05  1.254430E-05  1.334133E-05  1.420969E-05  1.517351E-05
</DataArray>
<DataArray type="Float64" Name="v3" format="ascii">
  5.827754E-09  1.442264E-08  1.921564E-08  2.169627E-08  2.312810E-08  2.410753E-08  2.489998E-08  2.572700E-08  4.451853E-09  1.137248E-08  1.544531E-08  1.762935E-08  1.885333E-08  1.957469E-08  1.993446E-08  2.010611E-08  2.515196E-09  6.936267E-09  9.789760E-09  1.140578E-08  1.227191E-08  1.265670E-08  1.255938E-08  1.213693E-08  3.534977E-10  1.815610E-09  3.014293E-09  3.775864E-09  4.140548E-09  4.171637E-09  3.717904E-09  2.993304E-09 -1.976458E-09 -3.859062E-09 -4.635901E-09 -4.894801E-09 -5.011723E-09 -5.199928E-09 -5.791205E-09 -6.547948E-09 -4.594951E-09 -1.043603E-08 -1.339654E-08 -1.454277E-08 -1.471589E-08 -1.447975E-08 -1.462748E-08 -1.558447E-08 -7.561555E-09 -1.803088E-08 -2.341015E-08 -2.510571E-08 -2.448117E-08 -2.227680E-08 -2.058078E-08 -2.244908E-08 -1.060349E-08 -2.595331E-08 -3.389500E-08 -3.592143E-08 -3.365298E-08 -2.713306E-08 -2.121556E-08 -2.385986E-08
</DataArray>
<DataArray type="Float64" Name="p" format="ascii">
  6.600037E+04  6.600044E+04  6.600063E+04  6.600088E+04  6.600114E+04  6.600139E+04  6.600161E+04  6.600179E+04  6.599988E+04  6.599992E+04  6.600007E+04  6.600027E+04  6.600051E+04  6.600074E+04  6.600096E+04  6.600116E+04  6.599937E+04  6.599936E+04  6.599944E+04  6.599957E+04  6.599976E+04  6.599997E+04  6.600020E+04  6.600043E+04  6.599888E+04  6.599883E+04  6.599882E+04  6.599887E+04  6.599898E+04  6.599915E+04  6.599938E+04  6.599965E+04  6.599842E+04  6.599833E+04  6.599825E+04  6.599821E+04  6.599824E+04  6.599835E+04  6.599856E+04  6.599883E+04  6.599804E+04  6.599793E+04  6.599780E+04  6.599769E+04  6.599765E+04  6.599769E+04  6.599784E+04  6.599807E+04  6.599780E+04  6.599770E+04  6.599757E+04  6.599744E+04  6.599736E+04  6.599735E+04  6.599743E+04  6.599755E+04  6.599771E+04  6.599763E+04  6.599753E+04  6.599742E+04  6.599735E+04  6.599731E+04  6.599734E+04  6.599736E+04
</DataArray>
<DataArray type="Float64" Name="b1" format="ascii">
  2.352448E-06 -4.488918E-06 -5.780999E-06 -1.765185E-05 -5.313778E-05 -1.287882E-04 -2.428115E-04 -3.963331E-04  2.095284E-05  1.705638E-05  2.026625E-05 -1.170456E-05 -1.120053E-04 -3.251212E-04 -6.473249E-04 -1.097127E-03  5.043396E-05  6.387829E-05  8.920422E-05  6.063247E-05 -7.610568E-05 -3.986754E-04 -9.220066E-04 -1.717379E-03  9.515161E-05  1.469001E-04  2.225966E-04  2.348492E-04  1.092971E-04 -2.738945E-04 -9.505087E-04 -2.124128E-03  1.606615E-04  2.744186E-04  4.381168E-04  5.405498E-04  4.816794E-04  1.038156E-04 -6.679713E-04 -2.138197E-03  2.554513E-04  4.587372E-04  7.559092E-04  1.011611E-03  1.093652E-03  8.276032E-04  8.694161E-05 -1.460713E-03  3.899677E-04  7.097201E-04  1.186344E-03  1.668677E-03  2.003856E-03  2.024710E-03  1.585472E-03  3.038453E-04  5.610219E-04  1.012458E-03  1.704813E-03  2.485299E-03  3.207148E-03  3.735943E-03  3.941093E-03  3.427012E-03
</DataArray>
<DataArray type="Float64" Name="b2" format="ascii">
  1.879013E+01  1.879177E+01  1.879273E+01  1.879305E+01  1.879295E+01  1.879262E+01  1.879213E+01  1.879155E+01  1.879014E+01  1.879178E+01  1.879274E+01  1.879310E+01  1.879306E+01  1.879280E+01  1.879238E+01  1.879185E+01  1.879014E+01  1.879177E+01  1.879275E+01  1.879318E+01  1.879326E+01  1.879316E+01  1.879289E+01  1.879250E+01  1.879013E+01  1.879174E+01  1.879274E+01  1.879326E+01  1.879351E+01  1.879365E+01  1.879369E+01  1.879358E+01  1.879009E+01  1.879164E+01  1.879266E+01  1.879329E+01  1.879376E+01  1.879422E+01  1.879473E+01  1.879515E+01  1.879001E+01  1.879145E+01  1.879247E+01  1.879321E+01  1.879393E+01  1.879480E+01  1.879590E+01  1.879710E+01  1.878988E+01  1.879114E+01  1.879210E+01  1.879294E+01  1.879392E+01  1.879522E+01  1.879697E+01  1.879913E+01  1.878968E+01  1.879065E+01  1.879149E+01  1.879238E+01  1.879355E+01  1.879519E+01  1.879756E+01  1.880072E+01
</DataArray>
<DataArray type="Float64" Name="b3" format="ascii">
  1.878997E+00  1.878996E+00  1.878997E+00  1.878999E+00  1.879003E+00  1.879007E+00  1.879013E+00  1.879020E+00  1.879008E+00  1.879004E+00  1.879003E+00  1.879003E+00  1.879006E+00  1.879011E+00  1.879017E+00  1.879024E+00  1.879009E+00  1.879005E+00  1.879001E+00  1.878999E+00  1.879001E+00  1.879006E+00  1.879012E+00  1.879019E+00  1.879005E+00  1.878999E+00  1.878993E+00  1.878989E+00  1.878990E+00  1.878995E+00  1.879001E+00  1.879008E+00  1.878994E+00  1.878987E+00  1.878980E+00  1.878975E+00  1.878974E+00  1.878978E+00  1.878983E+00  1.878990E+00  1.878979E+00  1.878971E+00  1.878964E+00  1.878958E+00  1.878957E+00  1.878959E+00  1.878962E+00  1.878964E+00  1.878961E+00  1.878954E+00  1.878946E+00  1.878941E+00  1.878943E+00  1.878948E+00  1.878950E+00  1.878940E+00  1.878941E+00  1.878933E+00  1.878924E+00  1.878922E+00  1.878932E+00  1.878952E+00  1.878964E+00  1.878935E+00
</DataArray>
<DataArray type="Float64" Name="Te" format="ascii">
  1.649928E-02  1.649929E-02  1.649932E-02  1.649935E-02  1.649939E-02  1.649942E-02  1.649945E-02  1.649945E-02  1.649909E-02  1.649909E-02  1.649911E-02  1.649914E-02  1.649917E-02  1.649920E-02  1.649922E-02  1.649922E-02  1.649896E-02  1.649896E-02  1.649897E-02  1.649900E-02  1.649902E-02  1.649904E-02  1.649906E-02  1.649907E-02  1.649887E-02  1.649887E-02  1.649888E-02  1.649889E-02  1.649890E-02  1.649892E-02  1.649893E-02  1.649895E-02  1.649882E-02  1.649882E-02  1.649882E-02  1.649881E-02  1.649882E-02  1.649883E-02  1.649884E-02  1.649887E-02  1.649881E-02  1.649880E-02  1.649879E-02  1.649877E-02  1.649877E-02  1.649877E-02  1.649878E-02  1.649880E-02  1.649885E-02  1.649884E-02  1.649883E-02  1.649881E-02  1.649880E-02  1.649879E-02  1.649879E-02  1.649879E-02  1.649899E-02  1.649899E-02  1.649898E-02  1.649897E-02  1.649895E-02  1.649894E-02  1.649893E-02  1.649891E-02
</DataArray>
<DataArray type="Float64" Name="Alfv" format="ascii">
  9.441691E-03  9.442504E-03  9.442973E-03  9.443127E-03  9.443070E-03  9.442897E-03  9.442643E-03  9.442345E-03  9.441675E-03  9.442488E-03  9.442963E-03  9.443134E-03  9.443107E-03  9.442971E-03  9.442750E-03  9.442474E-03  9.441676E-03  9.442488E-03  9.442975E-03  9.443183E-03  9.443216E-03  9.443157E-03  9.443015E-03  9.442805E-03  9.441678E-03  9.442481E-03  9.442984E-03  9.443243E-03  9.443364E-03  9.443425E-03  9.443431E-03  9.443365E-03  9.441678E-03  9.442455E-03  9.442967E-03  9.443283E-03  9.443515E-03  9.443741E-03  9.443981E-03  9.444180E-03  9.441661E-03  9.442384E-03  9.442893E-03  9.443268E-03  9.443628E-03  9.444057E-03  9.444595E-03  9.445180E-03  9.441623E-03  9.442253E-03  9.442737E-03  9.443163E-03  9.443651E-03  9.444294E-03  9.445158E-03  9.446226E-03  9.441573E-03  9.442059E-03  9.442481E-03  9.442926E-03  9.443512E-03  9.444328E-03  9.445502E-03  9.447066E-03
</DataArray>
<DataArray type="Float64" Name="divB" format="ascii">
           NaN           NaN           NaN           NaN           NaN           NaN           NaN           NaN           NaN           NaN           NaN           NaN           NaN           NaN           NaN           NaN           NaN           NaN           NaN           NaN           NaN           NaN           NaN           NaN           NaN           NaN           NaN           NaN           NaN           NaN           NaN           NaN           NaN           NaN           NaN           NaN           NaN           NaN           NaN           NaN           NaN           NaN           NaN           NaN           NaN           NaN           NaN           NaN           NaN           NaN           NaN           NaN           NaN           NaN           NaN           NaN           NaN           NaN           NaN           NaN           NaN           NaN           NaN           NaN
</DataArray>
<DataArray type="Float64" Name="beta" format="ascii">
  3.701649E+02  3.701015E+02  3.700653E+02  3.700541E+02  3.700595E+02  3.700738E+02  3.700942E+02  3.701176E+02  3.701620E+02  3.700984E+02  3.700616E+02  3.700488E+02  3.700516E+02  3.700630E+02  3.700807E+02  3.701023E+02  3.701590E+02  3.700954E+02  3.700575E+02  3.700417E+02  3.700396E+02  3.700448E+02  3.700564E+02  3.700730E+02  3.701568E+02  3.700938E+02  3.700547E+02  3.700346E+02  3.700255E+02  3.700210E+02  3.700209E+02  3.700265E+02  3.701558E+02  3.700948E+02  3.700546E+02  3.700298E+02  3.700118E+02  3.699943E+02  3.699758E+02  3.699607E+02  3.701568E+02  3.700999E+02  3.700597E+02  3.700301E+02  3.700017E+02  3.699682E+02  3.699262E+02  3.698808E+02  3.701606E+02  3.701110E+02  3.700729E+02  3.700392E+02  3.700007E+02  3.699501E+02  3.698823E+02  3.697986E+02  3.701678E+02  3.701296E+02  3.700963E+02  3.700612E+02  3.700150E+02  3.699508E+02  3.698585E+02  3.697357E+02
</DataArray>
<DataArray type="Float64" Name="j1" format="ascii">
  4.096820E-04  3.591161E-04  2.886044E-04  2.354324E-04  2.132076E-04  2.161987E-04  2.248557E-04  2.184972E-04  1.968119E-04  1.421002E-04  6.319267E-05  3.359354E-06 -2.289111E-05 -1.754200E-05 -2.908359E-06 -1.979235E-05 -4.842415E-05 -9.327226E-05 -1.638545E-04 -2.228938E-04 -2.557175E-04 -2.596675E-04 -2.434362E-04 -2.438905E-04 -2.531705E-04 -2.825867E-04 -3.341047E-04 -3.878310E-04 -4.295572E-04 -4.578850E-04 -4.666172E-04 -4.648734E-04 -4.144909E-04 -4.325184E-04 -4.626700E-04 -4.954913E-04 -5.280896E-04 -5.708147E-04 -6.316270E-04 -7.070859E-04 -5.171139E-04 -5.305999E-04 -5.466369E-04 -5.402432E-04 -5.096866E-04 -4.812946E-04 -5.385313E-04 -7.996731E-04 -6.029152E-04 -6.156041E-04 -6.257808E-04 -5.740892E-04 -3.977386E-04 -1.139823E-04  3.071232E-05 -4.727175E-04 -6.784814E-04 -7.005787E-04 -7.264745E-04 -6.563595E-04 -2.910436E-04  4.325553E-04  1.087609E-03  4.670357E-04
</DataArray>
<DataArray type="Float64" Name="j2" format="ascii">
  2.267333E-05  8.390767E-06 -5.084607E-05 -9.664977E-05 -1.345895E-04 -1.509220E-04 -1.485102E-04 -4.226921E-04  5.102867E-05  7.656276E-05  1.884042E-05 -5.456074E-05 -1.251492E-04 -1.587819E-04 -1.428451E-04 -3.610316E-04  7.737728E-05  1.420100E-04  8.789481E-05 -1.056599E-05 -1.136882E-04 -1.709048E-04 -1.462598E-04 -2.957956E-04  9.588549E-05  1.919931E-04  1.484619E-04  3.730230E-05 -8.837541E-05 -1.710632E-04 -1.586221E-04 -2.668882E-04  1.068111E-04  2.229441E-04  1.931391E-04  8.488658E-05 -4.363416E-05 -1.338448E-04 -1.392713E-04 -2.611179E-04  1.139334E-04  2.401722E-04  2.114348E-04  1.027219E-04 -1.305197E-05 -6.752590E-05 -2.235094E-05 -1.371160E-04  1.203080E-04  2.524671E-04  2.027824E-04  4.793626E-05 -1.025828E-04 -1.050000E-04  1.791072E-04  5.028503E-04  1.266258E-04  2.630378E-04  1.699198E-04 -1.253203E-04 -4.731588E-04 -4.959768E-04  3.363842E-04  2.061773E-03
</DataArray>
<DataArray type="Float64" Name="j3" format="ascii">
  5.806297E-02  4.097355E-02  1.988563E-02  3.772762E-03 -4.468506E-03 -6.201647E-03 -3.403587E-03  3.051618E-03  5.794330E-02  4.052248E-02  1.962035E-02  3.844567E-03 -4.376051E-03 -6.581117E-03 -4.341677E-03  2.140593E-03  5.745940E-02  3.974346E-02  1.930988E-02  4.149061E-03 -3.918712E-03 -6.691316E-03 -5.685096E-03  4.342512E-04  5.610762E-02  3.843816E-02  1.882065E-02  4.662004E-03 -2.698900E-03 -5.253280E-03 -5.193599E-03 -1.903352E-03  5.318112E-02  3.616286E-02  1.785298E-02  5.130107E-03 -8.413890E-04 -2.144739E-03 -1.732487E-03 -3.840147E-03  4.785843E-02  3.230304E-02  1.612836E-02  5.416329E-03  1.058028E-03  7.113154E-04  6.971116E-04 -4.444710E-03  3.945534E-02  2.660447E-02  1.370431E-02  5.595330E-03  2.551225E-03  2.204668E-03  1.001271E-03 -3.858696E-03  2.765274E-02  1.896385E-02  1.052183E-02  5.536489E-03  3.574743E-03  2.713366E-03  1.490180E-03 -2.467637E-03
</DataArray>
<DataArray type="Float64" Name="eta" format="ascii">
  0.000000E+00  0.000000E+00  0.000000E+00  0.000000E+00  0.000000E+00  0.000000E+00  0.000000E+00  0.000000E+00  0.000000E+00  0.000000E+00  0.000000E+00  0.000000E+00  0.000000E+00  0.000000E+00  0.000000E+00  0.000000E+00  0.000000E+00  0.000000E+00  0.000000E+00  0.000000E+00  0.000000E+00  0.000000E+00  0.000000E+00  0.000000E+00  0.000000E+00  0.000000E+00  0.000000E+00  0.000000E+00  0.000000E+00  0.000000E+00  0.000000E+00  0.000000E+00  0.000000E+00  0.000000E+00  0.000000E+00  0.000000E+00  0.000000E+00  0.000000E+00  0.000000E+00  0.000000E+00  0.000000E+00  0.000000E+00  0.000000E+00  0.000000E+00  0.000000E+00  0.000000E+00  0.000000E+00  0.000000E+00  0.000000E+00  0.000000E+00  0.000000E+00  0.000000E+00  0.000000E+00  0.000000E+00  0.000000E+00  0.000000E+00  0.000000E+00  0.000000E+00  0.000000E+00  0.000000E+00  0.000000E+00  0.000000E+00  0.000000E+00  0.000000E+00
</DataArray>
<DataArray type="Float64" Name="lQ" format="ascii">
  0.000000E+00  0.000000E+00  0.000000E+00  0.000000E+00  0.000000E+00  0.000000E+00  0.000000E+00  0.000000E+00  0.000000E+00  0.000000E+00  0.000000E+00  0.000000E+00  0.000000E+00  0.000000E+00  0.000000E+00  0.000000E+00  0.000000E+00  0.000000E+00  0.000000E+00  0.000000E+00  0.000000E+00  0.000000E+00  0.000000E+00  0.000000E+00  0.000000E+00  0.000000E+00  0.000000E+00  0.000000E+00  0.000000E+00  0.000000E+00  0.000000E+00  0.000000E+00  0.000000E+00  0.000000E+00  0.000000E+00  0.000000E+00  0.000000E+00  0.000000E+00  0.000000E+00  0.000000E+00  0.000000E+00  0.000000E+00  0.000000E+00  0.000000E+00  0.000000E+00  0.000000E+00  0.000000E+00  0.000000E+00  0.000000E+00  0.000000E+00  0.000000E+00  0.000000E+00  0.000000E+00  0.000000E+00  0.000000E+00  0.000000E+00  0.000000E+00  0.000000E+00  0.000000E+00  0.000000E+00  0.000000E+00  0.000000E+00  0.000000E+00  0.000000E+00
</DataArray>
<DataArray type="Float64" Name="cQ" format="ascii">
  0.000000E+00  0.000000E+00  0.000000E+00  0.000000E+00  0.000000E+00  0.000000E+00  0.000000E+00  0.000000E+00  0.000000E+00  0.000000E+00  0.000000E+00  0.000000E+00  0.000000E+00  0.000000E+00  0.000000E+00  0.000000E+00  0.000000E+00  0.000000E+00  0.000000E+00  0.000000E+00  0.000000E+00  0.000000E+00  0.000000E+00  0.000000E+00  0.000000E+00  0.000000E+00  0.000000E+00  0.000000E+00  0.000000E+00  0.000000E+00  0.000000E+00  0.000000E+00  0.000000E+00  0.000000E+00  0.000000E+00  0.000000E+00  0.000000E+00  0.000000E+00  0.000000E+00  0.000000E+00  0.000000E+00  0.000000E+00  0.000000E+00  0.000000E+00  0.000000E+00  0.000000E+00  0.000000E+00  0.000000E+00  0.000000E+00  0.000000E+00  0.000000E+00  0.000000E+00  0.000000E+00  0.000000E+00  0.000000E+00  0.000000E+00  0.000000E+00  0.000000E+00  0.000000E+00  0.000000E+00  0.000000E+00  0.000000E+00  0.000000E+00  0.000000E+00
</DataArray>
<DataArray type="Float64" Name="bQ" format="ascii">
  0.000000E+00  0.000000E+00  0.000000E+00  0.000000E+00  0.000000E+00  0.000000E+00  0.000000E+00  0.000000E+00  0.000000E+00  0.000000E+00  0.000000E+00  0.000000E+00  0.000000E+00  0.000000E+00  0.000000E+00  0.000000E+00  0.000000E+00  0.000000E+00  0.000000E+00  0.000000E+00  0.000000E+00  0.000000E+00  0.000000E+00  0.000000E+00  0.000000E+00  0.000000E+00  0.000000E+00  0.000000E+00  0.000000E+00  0.000000E+00  0.000000E+00  0.000000E+00  0.000000E+00  0.000000E+00  0.000000E+00  0.000000E+00  0.000000E+00  0.000000E+00  0.000000E+00  0.000000E+00  0.000000E+00  0.000000E+00  0.000000E+00  0.000000E+00  0.000000E+00  0.000000E+00  0.000000E+00  0.000000E+00  0.000000E+00  0.000000E+00  0.000000E+00  0.000000E+00  0.000000E+00  0.000000E+00  0.000000E+00  0.000000E+00  1.222000E-02  1.222000E-02  1.222000E-02  1.222000E-02  1.222000E-02  1.222000E-02  1.222000E-02  1.222000E-02
</DataArray>
<DataArray type="Float64" Name="rad" format="ascii">
  6.618953E+00  6.620609E+00  6.625349E+00  6.631438E+00  6.637554E+00  6.642597E+00  6.646009E+00  6.646989E+00  6.588842E+00  6.589728E+00  6.593015E+00  6.597827E+00  6.602964E+00  6.607451E+00  6.610503E+00  6.610677E+00  6.569099E+00  6.569273E+00  6.571225E+00  6.574575E+00  6.578404E+00  6.582017E+00  6.584951E+00  6.586416E+00  6.554500E+00  6.554399E+00  6.555591E+00  6.557493E+00  6.560125E+00  6.562563E+00  6.565036E+00  6.568067E+00  6.547215E+00  6.546198E+00  6.545930E+00  6.545809E+00  6.546737E+00  6.548397E+00  6.550544E+00  6.554086E+00  6.544567E+00  6.542995E+00  6.541234E+00  6.539435E+00  6.538524E+00  6.538762E+00  6.540022E+00  6.542755E+00  6.550656E+00  6.549214E+00  6.547437E+00  6.545257E+00  6.543581E+00  6.542182E+00  6.541508E+00  6.541374E+00  6.573688E+00  6.572579E+00  6.571231E+00  6.569437E+00  6.567472E+00  6.565371E+00  6.563674E+00  6.561059E+00
</DataArray>
<DataArray type="Float64" Name="HXR" format="ascii">
  0.000000E+00  0.000000E+00  0.000000E+00  0.000000E+00  0.000000E+00  0.000000E+00  0.000000E+00  0.000000E+00  0.000000E+00  0.000000E+00  0.000000E+00  0.000000E+00  0.000000E+00  0.000000E+00  0.000000E+00  0.000000E+00  0.000000E+00  0.000000E+00  0.000000E+00  0.000000E+00  0.000000E+00  0.000000E+00  0.000000E+00  0.000000E+00  0.000000E+00  0.000000E+00  0.000000E+00  0.000000E+00  0.000000E+00  0.000000E+00  0.000000E+00  0.000000E+00  0.000000E+00  0.000000E+00  0.000000E+00  0.000000E+00  0.000000E+00  0.000000E+00  0.000000E+00  0.000000E+00  0.000000E+00  0.000000E+00  0.000000E+00  0.000000E+00  0.000000E+00  0.000000E+00  0.000000E+00  0.000000E+00  0.000000E+00  0.000000E+00  0.000000E+00  0.000000E+00  0.000000E+00  0.000000E+00  0.000000E+00  0.000000E+00  0.000000E+00  0.000000E+00  0.000000E+00  0.000000E+00  0.000000E+00  0.000000E+00  0.000000E+00  0.000000E+00
</DataArray>
<DataArray type="Float64" Name="E1" format="ascii">
  1.575308E-06  1.801693E-06  1.974037E-06  2.124685E-06  2.256842E-06  2.366647E-06  2.453788E-06  2.521833E-06 -1.342316E-06 -1.115619E-06 -9.252704E-07 -7.553343E-07 -6.042831E-07 -4.677632E-07 -3.247690E-07 -1.304635E-07 -4.537629E-06 -4.338472E-06 -4.161226E-06 -4.015313E-06 -3.901586E-06 -3.801401E-06 -3.651973E-06 -3.357571E-06 -7.925883E-06 -7.783455E-06 -7.657754E-06 -7.579183E-06 -7.552468E-06 -7.561597E-06 -7.496510E-06 -7.202042E-06 -1.148598E-05 -1.143814E-05 -1.142025E-05 -1.147659E-05 -1.161513E-05 -1.180970E-05 -1.194758E-05 -1.180877E-05 -1.499469E-05 -1.508934E-05 -1.524943E-05 -1.553913E-05 -1.595351E-05 -1.644477E-05 -1.691961E-05 -1.717034E-05 -1.819944E-05 -1.846432E-05 -1.881592E-05 -1.936585E-05 -2.013921E-05 -2.104815E-05 -2.203981E-05 -2.305423E-05 -2.083112E-05 -2.131196E-05 -2.199231E-05 -2.296532E-05 -2.420235E-05 -2.557769E-05 -2.709829E-05 -2.895862E-05
</DataArray>
<DataArray type="Float64" Name="E2" format="ascii">
 -3.908224E-07 -1.165068E-06 -2.280611E-06 -3.533241E-06 -5.039718E-06 -6.729582E-06 -8.497464E-06 -1.023681E-05 -4.431149E-07 -1.255555E-06 -2.386654E-06 -3.636614E-06 -5.126966E-06 -6.802883E-06 -8.577107E-06 -1.034978E-05 -5.046782E-07 -1.370284E-06 -2.478000E-06 -3.713264E-06 -5.186638E-06 -6.871518E-06 -8.736696E-06 -1.071462E-05 -5.561851E-07 -1.466045E-06 -2.521451E-06 -3.734267E-06 -5.181773E-06 -6.884068E-06 -8.894213E-06 -1.124851E-05 -5.895129E-07 -1.480588E-06 -2.518157E-06 -3.688371E-06 -5.067976E-06 -6.789768E-06 -8.938149E-06 -1.173171E-05 -5.808458E-07 -1.423957E-06 -2.389854E-06 -3.489508E-06 -4.784106E-06 -6.450265E-06 -8.689620E-06 -1.183601E-05 -4.967332E-07 -1.205104E-06 -2.025009E-06 -2.971458E-06 -4.172698E-06 -5.695536E-06 -7.906806E-06 -1.119560E-05 -3.289441E-07 -7.784906E-07 -1.343730E-06 -2.049927E-06 -3.008511E-06 -4.365178E-06 -6.367397E-06 -9.571313E-06
</DataArray>
<DataArray type="Float64" Name="E3" format="ascii">
  3.908256E-06  1.165181E-05  2.280946E-05  3.533819E-05  5.040508E-05  6.730510E-05  8.498400E-05  1.023759E-04  4.431179E-06  1.255671E-05  2.386999E-05  3.637207E-05  5.127780E-05  6.803849E-05  8.578105E-05  1.035067E-04  5.046916E-06  1.370424E-05  2.478382E-05  3.713907E-05  5.187518E-05  6.872569E-05  8.737804E-05  1.071563E-04  5.562276E-06  1.466242E-05  2.521920E-05  3.735031E-05  5.182812E-05  6.885313E-05  8.895572E-05  1.124979E-04  5.896159E-06  1.480895E-05  2.518807E-05  3.689397E-05  5.069356E-05  6.791440E-05  8.940052E-05  1.173364E-04  5.810566E-06  1.424457E-05  2.390828E-05  3.491018E-05  4.786145E-05  6.452777E-05  8.692602E-05  1.183937E-04  4.971179E-06  1.205905E-05  2.026481E-05  2.973737E-05  4.175844E-05  5.699544E-05  7.911809E-05  1.120177E-04  3.295709E-06  7.796938E-06  1.345887E-05  2.053309E-05  3.013319E-05  4.371582E-05  6.375766E-05  9.582388E-05
</DataArray>
<DataArray type="Float64" Name="SXR" format="ascii">
  0.000000E+00  0.000000E+00  0.000000E+00  0.000000E+00  0.000000E+00  0.000000E+00  0.000000E+00  0.000000E+00  0.000000E+00  0.000000E+00  0.000000E+00  0.000000E+00  0.000000E+00  0.000000E+00  0.000000E+00  0.000000E+00  0.000000E+00  0.000000E+00  0.000000E+00  0.000000E+00  0.000000E+00  0.000000E+00  0.000000E+00  0.000000E+00  0.000000E+00  0.000000E+00  0.000000E+00  0.000000E+00  0.000000E+00  0.000000E+00  0.000000E+00  0.000000E+00  0.000000E+00  0.000000E+00  0.000000E+00  0.000000E+00  0.000000E+00  0.000000E+00  0.000000E+00  0.000000E+00  0.000000E+00  0.000000E+00  0.000000E+00  0.000000E+00  0.000000E+00  0.000000E+00  0.000000E+00  0.000000E+00  0.000000E+00  0.000000E+00  0.000000E+00  0.000000E+00  0.000000E+00  0.000000E+00  0.000000E+00  0.000000E+00  0.000000E+00  0.000000E+00  0.000000E+00  0.000000E+00  0.000000E+00  0.000000E+00  0.000000E+00  0.000000E+00
</DataArray>
<DataArray type="Float64" Name="RF" format="ascii">
  0.000000E+00  0.000000E+00  0.000000E+00  0.000000E+00  0.000000E+00  0.000000E+00  0.000000E+00  0.000000E+00  0.000000E+00  0.000000E+00  0.000000E+00  0.000000E+00  0.000000E+00  0.000000E+00  0.000000E+00  0.000000E+00  0.000000E+00  0.000000E+00  0.000000E+00  0.000000E+00  0.000000E+00  0.000000E+00  0.000000E+00  0.000000E+00  0.000000E+00  0.000000E+00  0.000000E+00  0.000000E+00  0.000000E+00  0.000000E+00  0.000000E+00  0.000000E+00  0.000000E+00  0.000000E+00  0.000000E+00  0.000000E+00  0.000000E+00  0.000000E+00  0.000000E+00  0.000000E+00  0.000000E+00  0.000000E+00  0.000000E+00  0.000000E+00  0.000000E+00  0.000000E+00  0.000000E+00  0.000000E+00  0.000000E+00  0.000000E+00  0.000000E+00  0.000000E+00  0.000000E+00  0.000000E+00  0.000000E+00  0.000000E+00  0.000000E+00  0.000000E+00  0.000000E+00  0.000000E+00  0.000000E+00  0.000000E+00  0.000000E+00  0.000000E+00
</DataArray>
<DataArray type="Float64" Name="divV" format="ascii">
  3.733405E-05  3.389182E-05  2.921145E-05  2.522414E-05  2.077250E-05  1.763297E-05  1.580706E-05  1.596575E-05  3.705598E-05  3.453699E-05  3.045936E-05  2.730228E-05  2.374169E-05  2.131133E-05  1.981479E-05  1.938568E-05  3.943930E-05  3.844540E-05  3.538834E-05  3.282519E-05  2.991800E-05  2.771161E-05  2.574962E-05  2.439631E-05  4.123166E-05  4.199357E-05  4.018995E-05  3.827356E-05  3.609649E-05  3.372395E-05  3.053952E-05  2.781621E-05  4.177883E-05  4.382933E-05  4.322052E-05  4.313882E-05  4.211214E-05  3.970439E-05  3.522494E-05  3.036055E-05  3.920755E-05  4.216019E-05  4.238564E-05  4.355982E-05  4.426015E-05  4.268095E-05  3.771280E-05  3.219844E-05  3.425122E-05  3.749412E-05  3.910007E-05  4.153056E-05  4.401748E-05  4.394848E-05  3.878465E-05  3.207733E-05  3.090970E-05  3.321007E-05  3.472029E-05  3.727082E-05  3.949750E-05  4.031925E-05  3.693575E-05  3.108555E-05
</DataArray>
</CellData>
<Points>
<DataArray type="Float32" NumberOfComponents="3" format="ascii">
 -5.000000E-01  0.000000E+00  0.000000E+00
 -4.687500E-01  0.000000E+00  0.000000E+00
 -4.375000E-01  0.000000E+00  0.000000E+00
 -4.062500E-01  0.000000E+00  0.000000E+00
 -3.750000E-01  0.000000E+00  0.000000E+00
 -3.437500E-01  0.000000E+00  0.000000E+00
 -3.125000E-01  0.000000E+00  0.000000E+00
 -2.812500E-01  0.000000E+00  0.000000E+00
 -2.500000E-01  0.000000E+00  0.000000E+00
 -5.000000E-01  3.125000E-02  0.000000E+00
 -4.687500E-01  3.125000E-02  0.000000E+00
 -4.375000E-01  3.125000E-02  0.000000E+00
 -4.062500E-01  3.125000E-02  0.000000E+00
 -3.750000E-01  3.125000E-02  0.000000E+00
 -3.437500E-01  3.125000E-02  0.000000E+00
 -3.125000E-01  3.125000E-02  0.000000E+00
 -2.812500E-01  3.125000E-02  0.000000E+00
 -2.500000E-01  3.125000E-02  0.000000E+00
 -5.000000E-01  6.250000E-02  0.000000E+00
 -4.687500E-01  6.250000E-02  0.000000E+00
 -4.375000E-01  6.250000E-02  0.000000E+00
 -4.062500E-01  6.250000E-02  0.000000E+00
 -3.750000E-01  6.250000E-02  0.000000E+00
 -3.437500E-01  6.250000E-02  0.000000E+00
 -3.125000E-01  6.250000E-02  0.000000E+00
 -2.812500E-01  6.250000E-02  0.000000E+00
 -2.500000E-01  6.250000E-02  0.000000E+00
 -5.000000E-01  9.375000E-02  0.000000E+00
 -4.687500E-01  9.375000E-02  0.000000E+00
 -4.375000E-01  9.375000E-02  0.000000E+00
 -4.062500E-01  9.375000E-02  0.000000E+00
 -3.750000E-01  9.375000E-02  0.000000E+00
 -3.437500E-01  9.375000E-02  0.000000E+00
 -3.125000E-01  9.375000E-02  0.000000E+00
 -2.812500E-01  9.375000E-02  0.000000E+00
 -2.500000E-01  9.375000E-02  0.000000E+00
 -5.000000E-01  1.250000E-01  0.000000E+00
 -4.687500E-01  1.250000E-01  0.000000E+00
 -4.375000E-01  1.250000E-01  0.000000E+00
 -4.062500E-01  1.250000E-01  0.000000E+00
 -3.750000E-01  1.250000E-01  0.000000E+00
 -3.437500E-01  1.250000E-01  0.000000E+00
 -3.125000E-01  1.250000E-01  0.000000E+00
 -2.812500E-01  1.250000E-01  0.000000E+00
 -2.500000E-01  1.250000E-01  0.000000E+00
 -5.000000E-01  1.562500E-01  0.000000E+00
 -4.687500E-01  1.562500E-01  0.000000E+00
 -4.375000E-01  1.562500E-01  0.000000E+00
 -4.062500E-01  1.562500E-01  0.000000E+00
 -3.750000E-01  1.562500E-01  0.000000E+00
 -3.437500E-01  1.562500E-01  0.000000E+00
 -3.125000E-01  1.562500E-01  0.000000E+00
 -2.812500E-01  1.562500E-01  0.000000E+00
 -2.500000E-01  1.562500E-01  0.000000E+00
 -5.000000E-01  1.875000E-01  0.000000E+00
 -4.687500E-01  1.875000E-01  0.000000E+00
 -4.375000E-01  1.875000E-01  0.000000E+00
 -4.062500E-01  1.875000E-01  0.000000E+00
 -3.750000E-01  1.875000E-01  0.000000E+00
 -3.437500E-01  1.875000E-01  0.000000E+00
 -3.125000E-01  1.875000E-01  0.000000E+00
 -2.812500E-01  1.875000E-01  0.000000E+00
 -2.500000E-01  1.875000E-01  0.000000E+00
 -5.000000E-01  2.187500E-01  0.000000E+00
 -4.687500E-01  2.187500E-01  0.000000E+00
 -4.375000E-01  2.187500E-01  0.000000E+00
 -4.062500E-01  2.187500E-01  0.000000E+00
 -3.750000E-01  2.187500E-01  0.000000E+00
 -3.437500E-01  2.187500E-01  0.000000E+00
 -3.125000E-01  2.187500E-01  0.000000E+00
 -2.812500E-01  2.187500E-01  0.000000E+00
 -2.500000E-01  2.187500E-01  0.000000E+00
 -5.000000E-01  2.500000E-01  0.000000E+00
 -4.687500E-01  2.500000E-01  0.000000E+00
 -4.375000E-01  2.500000E-01  0.000000E+00
 -4.062500E-01  2.500000E-01  0.000000E+00
 -3.750000E-01  2.500000E-01  0.000000E+00
 -3.437500E-01  2.500000E-01  0.000000E+00
 -3.125000E-01  2.500000E-01  0.000000E+00
 -2.812500E-01  2.500000E-01  0.000000E+00
 -2.500000E-01  2.500000E-01  0.000000E+00
</DataArray>
</Points>
<Cells>
<DataArray type="Int32" Name="connectivity" format="ascii">
      0       1       9      10