<?xml version="1.0"?>
<VTKFile type="UnstructuredGrid" version="0.1" byte_order="LittleEndian">
<UnstructuredGrid>
<FieldData>
<DataArray type="Float32" Name="TIME" NumberOfTuples="1" format="ascii">
   16.0752087    
</DataArray>
</FieldData>
<Piece NumberOfPoints="     81" NumberOfCells="     64">
<CellData>
<DataArray type="Float64" Name="rho" format="ascii">
  4.000075E+06  4.000074E+06  4.000073E+06  4.000070E+06  4.000067E+06  4.000064E+06  4.000062E+06  4.000064E+06  4.000104E+06  4.000104E+06  4.000104E+06  4.000105E+06  4.000104E+06  4.000102E+06  4.000102E+06  4.000104E+06  4.000115E+06  4.000115E+06  4.000117E+06  4.000120E+06  4.000122E+06  4.000123E+06  4.000123E+06  4.000124E+06  4.000118E+06  4.000120E+06  4.000123E+06  4.000128E+06  4.000132E+06  4.000135E+06  4.000136E+06  4.000135E+06  4.000117E+06  4.000119E+06  4.000124E+06  4.000130E+06  4.000136E+06  4.000141E+06  4.000142E+06  4.000141E+06  4.000107E+06  4.000111E+06  4.000118E+06  4.000127E+06  4.000136E+06  4.000141E+06  4.000144E+06  4.000143E+06  4.000091E+06  4.000096E+06  4.000104E+06  4.000115E+06  4.000125E+06  4.000132E+06  4.000137E+06  4.000140E+06  4.000058E+06  4.000062E+06  4.000070E+06  4.000079E+06  4.000090E+06  4.000098E+06  4.000107E+06  4.000115E+06
</DataArray>
<DataArray type="Float64" Name="v1" format="ascii">
 -5.871020E-07 -1.663915E-06 -2.785968E-06 -3.850190E-06 -4.769765E-06 -5.466092E-06 -5.916185E-06 -6.177831E-06 -5.728092E-07 -1.627155E-06 -2.746345E-06 -3.799184E-06 -4.714987E-06 -5.443011E-06 -5.955521E-06 -6.314269E-06 -5.468612E-07 -1.588215E-06 -2.668625E-06 -3.695662E-06 -4.619283E-06 -5.393665E-06 -6.056313E-06 -6.627713E-06 -5.068595E-07 -1.524540E-06 -2.540196E-06 -3.528530E-06 -4.457642E-06 -5.299400E-06 -6.148203E-06 -7.044414E-06 -4.510554E-07 -1.408942E-06 -2.340925E-06 -3.267954E-06 -4.189247E-06 -5.111993E-06 -6.153868E-06 -7.415892E-06 -3.771742E-07 -1.233260E-06 -2.057019E-06 -2.894266E-06 -3.770212E-06 -4.734894E-06 -5.898241E-06 -7.477433E-06 -2.797640E-07 -9.647273E-07 -1.625863E-06 -2.329041E-06 -3.119644E-06 -4.079599E-06 -5.285977E-06 -7.047277E-06 -1.618219E-07 -6.195784E-07 -1.063639E-06 -1.587192E-06 -2.237615E-06 -3.094015E-06 -4.198149E-06 -5.991154E-06
</DataArray>
<DataArray type="Float64" Name="v2" format="ascii">
  4.023617E-06  4.039919E-06  4.071297E-06  4.108048E-06  4.139693E-06  4.158521E-06  4.152184E-06  4.118670E-06  5.756394E-06  5.773422E-06  5.810332E-06  5.864608E-06  5.921678E-06  5.955694E-06  5.916714E-06  5.765542E-06  7.131206E-06  7.154225E-06  7.207038E-06  7.301490E-06  7.409288E-06  7.476115E-06  7.430827E-06  7.174664E-06  8.074480E-06  8.113384E-06  8.204963E-06  8.357757E-06  8.548881E-06  8.715150E-06  8.741399E-06  8.488496E-06  8.690293E-06  8.750105E-06  8.883628E-06  9.132710E-06  9.469802E-06  9.788313E-06  9.965188E-06  9.857348E-06  8.963578E-06  9.062910E-06  9.306777E-06  9.695025E-06  1.019251E-05  1.072654E-05  1.116409E-05  1.137579E-05  9.009417E-06  9.121232E-06  9.423854E-06  9.954410E-06  1.065671E-05  1.143988E-05  1.221372E-05  1.288929E-05  8.725887E-06  8.862268E-06  9.236939E-06  9.889131E-06  1.077972E-05  1.182005E-05  1.294574E-05  1.420208E-05
</DataArray>
<DataArray type="Float64" Name="v3" format="ascii">
  5.313445E-09  1.314897E-08  1.791276E-08  2.061558E-08  2.223041E-08  2.332003E-08  2.415909E-08  2.496592E-08  3.837021E-09  9.934257E-09  1.389243E-08  1.621758E-08  1.755538E-08  1.833218E-08  1.868363E-08  1.877810E-08  1.907481E-09  5.490351E-09  8.107260E-09  9.744309E-09  1.062582E-08  1.099029E-08  1.083575E-08  1.033930E-08 -1.074401E-10  5.799252E-10  1.428603E-09  2.090908E-09  2.392945E-09  2.360610E-09  1.816823E-09  1.053264E-09 -2.302312E-09 -4.846426E-09 -5.974193E-09 -6.326284E-09 -6.422564E-09 -6.539621E-09 -7.134490E-09 -8.044596E-09 -4.752635E-09 -1.106246E-08 -1.429815E-08 -1.534885E-08 -1.512451E-08 -1.427848E-08 -1.414993E-08 -1.605698E-08 -7.433215E-09 -1.802796E-08 -2.351306E-08 -2.475974E-08 -2.298949E-08 -1.905320E-08 -1.668293E-08 -2.139379E-08 -1.021472E-08 -2.516962E-08 -3.295244E-08 -3.418057E-08 -2.976525E-08 -2.005205E-08 -1.286790E-08 -2.102885E-08
</DataArray>
<DataArray type="Float64" Name="p" format="ascii">
  6.599538E+04  6.599537E+04  6.599539E+04  6.599542E+04  6.599544E+04  6.599541E+04  6.599535E+04  6.599530E+04  6.599505E+04  6.599504E+04  6.599509E+04  6.599515E+04  6.599520E+04  6.599519E+04  6.599513E+04  6.599505E+04  6.599472E+04  6.599474E+04  6.599482E+04  6.599493E+04  6.599503E+04  6.599505E+04  6.599502E+04  6.599494E+04  6.599448E+04  6.599453E+04  6.599465E+04  6.599482E+04  6.599497E+04  6.599503E+04  6.599503E+04  6.599497E+04  6.599434E+04  6.599442E+04  6.599459E+04  6.599480E+04  6.599499E+04  6.599508E+04  6.599510E+04  6.599504E+04  6.599428E+04  6.599438E+04  6.599460E+04  6.599485E+04  6.599508E+04  6.599520E+04  6.599524E+04  6.599518E+04  6.599439E+04  6.599451E+04  6.599473E+04  6.599502E+04  6.599528E+04  6.599543E+04  6.599550E+04  6.599545E+04  6.599468E+04  6.599480E+04  6.599502E+04  6.599529E+04  6.599557E+04  6.599577E+04  6.599590E+04  6.599590E+04
</DataArray>
<DataArray type="Float64" Name="b1" format="ascii">
  4.690604E-06  1.660163E-05  2.148130E-05  9.510718E-06 -3.449494E-05 -1.265226E-04 -2.648459E-04 -4.496586E-04  2.943259E-05  6.252601E-05  8.302966E-05  5.555559E-05 -5.981644E-05 -3.118789E-04 -7.011793E-04 -1.247129E-03  6.496694E-05  1.282885E-04  1.828484E-04  1.659377E-04  1.400432E-05 -3.594569E-04 -9.778797E-04 -1.930791E-03  1.163867E-04  2.257155E-04  3.420217E-04  3.766705E-04  2.433308E-04 -1.886826E-04 -9.686909E-04 -2.341179E-03  1.911755E-04  3.662237E-04  5.809405E-04  7.212567E-04  6.709828E-04  2.630126E-04 -6.007921E-04 -2.261342E-03  3.004509E-04  5.651514E-04  9.252507E-04  1.241267E-03  1.366589E-03  1.114017E-03  3.382007E-04 -1.341993E-03  4.525733E-04  8.303494E-04  1.384644E-03  1.959211E-03  2.393317E-03  2.507923E-03  2.146069E-03  8.320473E-04  6.438641E-04  1.148710E-03  1.934932E-03  2.845546E-03  3.729886E-03  4.448609E-03  4.849457E-03  4.443368E-03
</DataArray>
<DataArray type="Float64" Name="b2" format="ascii">
  1.879034E+01  1.879217E+01  1.879321E+01  1.879359E+01  1.879350E+01  1.879312E+01  1.879252E+01  1.879182E+01  1.879032E+01  1.879216E+01  1.879322E+01  1.879365E+01  1.879363E+01  1.879334E+01  1.879283E+01  1.879218E+01  1.879030E+01  1.879212E+01  1.879322E+01  1.879374E+01  1.879387E+01  1.879376E+01  1.879345E+01  1.879296E+01  1.879026E+01  1.879204E+01  1.879318E+01  1.879382E+01  1.879415E+01  1.879433E+01  1.879439E+01  1.879426E+01  1.879018E+01  1.879189E+01  1.879306E+01  1.879383E+01  1.879442E+01  1.879498E+01  1.879558E+01  1.879610E+01  1.879007E+01  1.879165E+01  1.879281E+01  1.879372E+01  1.879459E+01  1.879560E+01  1.879687E+01  1.879830E+01  1.878991E+01  1.879126E+01  1.879237E+01  1.879338E+01  1.879452E+01  1.879599E+01  1.879798E+01  1.880050E+01  1.878968E+01  1.879071E+01  1.879167E+01  1.879269E+01  1.879401E+01  1.879582E+01  1.879849E+01  1.880212E+01
</DataArray>
<DataArray type="Float64" Name="b3" format="ascii">
  1.878939E+00  1.878937E+00  1.878935E+00  1.878933E+00  1.878933E+00  1.878933E+00  1.878933E+00  1.878935E+00  1.878954E+00  1.878951E+00  1.878948E+00  1.878946E+00  1.878945E+00  1.878946E+00  1.878947E+00  1.878947E+00  1.878960E+00  1.878957E+00  1.878953E+00  1.878950E+00  1.878950E+00  1.878952E+00  1.878954E+00  1.878953E+00  1.878960E+00  1.878956E+00  1.878952E+00  1.878950E+00  1.878951E+00  1.878953E+00  1.878956E+00  1.878954E+00  1.878955E+00  1.878951E+00  1.878947E+00  1.878946E+00  1.878948E+00  1.878950E+00  1.878951E+00  1.878950E+00  1.878944E+00  1.878941E+00  1.878938E+00  1.878939E+00  1.878943E+00  1.878946E+00  1.878946E+00  1.878939E+00  1.878931E+00  1.878928E+00  1.878926E+00  1.878929E+00  1.878940E+00  1.878951E+00  1.878953E+00  1.878929E+00  1.878916E+00  1.878911E+00  1.878908E+00  1.878915E+00  1.878940E+00  1.878974E+00  1.878990E+00  1.878935E+00
</DataArray>
<DataArray type="Float64" Name="Te" format="ascii">
  1.649854E-02  1.649854E-02  1.649855E-02  1.649857E-02  1.649858E-02  1.649859E-02  1.649858E-02  1.649856E-02  1.649833E-02  1.649833E-02  1.649834E-02  1.649836E-02  1.649837E-02  1.649837E-02  1.649836E-02  1.649833E-02  1.649821E-02  1.649821E-02  1.649822E-02  1.649824E-02  1.649825E-02  1.649826E-02  1.649825E-02  1.649823E-02  1.649813E-02  1.649814E-02  1.649816E-02  1.649818E-02  1.649820E-02  1.649820E-02  1.649820E-02  1.649819E-02  1.649811E-02  1.649811E-02  1.649814E-02  1.649816E-02  1.649818E-02  1.649819E-02  1.649819E-02  1.649818E-02  1.649813E-02  1.649814E-02  1.649816E-02  1.649819E-02  1.649821E-02  1.649822E-02  1.649822E-02  1.649820E-02  1.649822E-02  1.649823E-02  1.649825E-02  1.649828E-02  1.649831E-02  1.649831E-02  1.649831E-02  1.649829E-02  1.649843E-02  1.649844E-02  1.649847E-02  1.649849E-02  1.649852E-02  1.649854E-02  1.649853E-02  1.649850E-02
</DataArray>
<DataArray type="Float64" Name="Alfv" format="ascii">
  9.441934E-03  9.442849E-03  9.443368E-03  9.443560E-03  9.443517E-03  9.443329E-03  9.443035E-03  9.442682E-03  9.441894E-03  9.442806E-03  9.443335E-03  9.443548E-03  9.443540E-03  9.443395E-03  9.443142E-03  9.442816E-03  9.441870E-03  9.442774E-03  9.443318E-03  9.443573E-03  9.443635E-03  9.443582E-03  9.443426E-03  9.443184E-03  9.441844E-03  9.442729E-03  9.443292E-03  9.443603E-03  9.443764E-03  9.443852E-03  9.443877E-03  9.443816E-03  9.441810E-03  9.442657E-03  9.443231E-03  9.443608E-03  9.443892E-03  9.444167E-03  9.444464E-03  9.444724E-03  9.441765E-03  9.442543E-03  9.443114E-03  9.443555E-03  9.443978E-03  9.444476E-03  9.445106E-03  9.445815E-03  9.441701E-03  9.442370E-03  9.442910E-03  9.443400E-03  9.443957E-03  9.444680E-03  9.445664E-03  9.446916E-03  9.441628E-03  9.442134E-03  9.442601E-03  9.443101E-03  9.443746E-03  9.444639E-03  9.445954E-03  9.447751E-03
</DataArray>
<DataArray type="Float64" Name="divB" format="ascii">
           NaN           NaN           NaN           NaN           NaN           NaN           NaN           NaN           NaN           NaN           NaN           NaN           NaN           NaN           NaN           NaN           NaN           NaN           NaN           NaN           NaN           NaN           NaN           NaN           NaN           NaN           NaN           NaN           NaN           NaN           NaN           NaN           NaN           NaN           NaN           NaN           NaN           NaN           NaN           NaN           NaN           NaN           NaN           NaN           NaN           NaN           NaN           NaN           NaN           NaN           NaN           NaN           NaN           NaN           NaN           NaN           NaN           NaN           NaN           NaN           NaN           NaN           NaN           NaN
</DataArray>
<DataArray type="Float64" Name="beta" format="ascii">
  3.701293E+02  3.700577E+02  3.700172E+02  3.700025E+02  3.700062E+02  3.700211E+02  3.700441E+02  3.700712E+02  3.701278E+02  3.700564E+02  3.700152E+02  3.699988E+02  3.699998E+02  3.700112E+02  3.700308E+02  3.700556E+02  3.701270E+02  3.700562E+02  3.700137E+02  3.699942E+02  3.699897E+02  3.699939E+02  3.700059E+02  3.700244E+02  3.701273E+02  3.700581E+02  3.700144E+02  3.699905E+02  3.699783E+02  3.699715E+02  3.699694E+02  3.699739E+02  3.701294E+02  3.700632E+02  3.700187E+02  3.699897E+02  3.699679E+02  3.699466E+02  3.699232E+02  3.699027E+02  3.701334E+02  3.700726E+02  3.700284E+02  3.699945E+02  3.699618E+02  3.699229E+02  3.698736E+02  3.698178E+02  3.701405E+02  3.700883E+02  3.700465E+02  3.700087E+02  3.699656E+02  3.699091E+02  3.698320E+02  3.697335E+02  3.701510E+02  3.701116E+02  3.700755E+02  3.700369E+02  3.699869E+02  3.699174E+02  3.698143E+02  3.696729E+02
</DataArray>
<DataArray type="Float64" Name="j1" format="ascii">
  5.910218E-04  5.540375E-04  5.091098E-04  4.808234E-04  4.763487E-04  4.836543E-04  4.872418E-04  4.572774E-04  3.449428E-04  3.196325E-04  2.861728E-04  2.730523E-04  2.853117E-04  3.138525E-04  3.333931E-04  2.844055E-04  9.341485E-05  8.332875E-05  6.784061E-05  7.312451E-05  9.119903E-05  1.191745E-04  1.437392E-04  1.183287E-04 -9.465365E-05 -9.039263E-05 -8.556634E-05 -6.547088E-05 -4.676130E-05 -3.720199E-05 -3.728820E-05 -5.066690E-05 -2.613387E-04 -2.488953E-04 -2.249699E-04 -1.801354E-04 -1.335789E-04 -1.148010E-04 -1.492117E-04 -2.536277E-04 -3.713634E-04 -3.692471E-04 -3.454186E-04 -2.656042E-04 -1.271962E-04  1.817915E-05  3.063066E-05 -3.337446E-04 -4.476028E-04 -4.755637E-04 -4.852233E-04 -3.767890E-04 -4.747907E-05  4.421791E-04  6.998855E-04 -6.129212E-05 -6.007479E-04 -6.602008E-04 -7.172725E-04 -5.893629E-04 -2.901422E-05  9.696524E-04  1.731360E-03  6.645426E-04
</DataArray>
<DataArray type="Float64" Name="j2" format="ascii">
  3.369297E-05  6.678011E-05  5.970604E-05  3.458705E-05  6.739352E-06  2.612601E-06  1.886546E-05 -2.367517E-04  4.982789E-05  1.031449E-04  9.115396E-05  4.274340E-05 -6.890224E-06 -1.381421E-05  3.953859E-05 -1.349331E-04  5.900725E-05  1.255501E-04  1.062862E-04  3.544818E-05 -3.406086E-05 -4.546880E-05  4.831239E-05 -1.532153E-05  5.991168E-05  1.287192E-04  1.013582E-04  1.938498E-05 -5.294025E-05 -6.635434E-05  4.038446E-05  4.600998E-05  5.473815E-05  1.164628E-04  8.136450E-05 -3.356861E-06 -6.232975E-05 -5.494189E-05  6.177731E-05  4.974457E-05  4.746605E-05  9.235038E-05  3.259833E-05 -7.200597E-05 -1.182746E-04 -5.072154E-05  1.792111E-04  2.740138E-04  5.263031E-05  9.051801E-05 -2.227838E-05 -2.215793E-04 -3.461131E-04 -2.127687E-04  4.137011E-04  1.349411E-03  7.544794E-05  1.299709E-04 -6.617639E-05 -5.097502E-04 -9.372427E-04 -7.980861E-04  6.826823E-04  3.713724E-03
</DataArray>
<DataArray type="Float64" Name="j3" format="ascii">
  6.751266E-02  4.473410E-02  2.104925E-02  3.521986E-03 -6.258648E-03 -8.980671E-03 -5.902660E-03  2.094971E-03  6.680574E-02  4.455787E-02  2.129260E-02  4.075072E-03 -5.766565E-03 -9.161778E-03 -7.134251E-03  4.373114E-04  6.536893E-02  4.408207E-02  2.174923E-02  5.212162E-03 -4.468673E-03 -8.636363E-03 -8.479770E-03 -2.151701E-03  6.275771E-02  4.293543E-02  2.206808E-02  6.664267E-03 -2.241283E-03 -6.177434E-03 -7.182949E-03 -4.981750E-03  5.832273E-02  4.057143E-02  2.171315E-02  7.909101E-03  3.792270E-04 -2.246052E-03 -2.967928E-03 -6.872596E-03  5.137842E-02  3.639908E-02  2.029690E-02  8.639919E-03  2.583848E-03  6.502814E-04 -8.097636E-04 -6.556333E-03  4.131549E-02  3.003267E-02  1.769003E-02  8.747050E-03  3.968842E-03  2.001590E-03  5.235616E-05 -3.405998E-03  2.786160E-02  2.116079E-02  1.349283E-02  7.713532E-03  4.269105E-03  2.966532E-03  3.521922E-03  3.253135E-03
</DataArray>
<DataArray type="Float64" Name="eta" format="ascii">
  0.000000E+00  0.000000E+00  0.000000E+00  0.000000E+00  0.000000E+00  0.000000E+00  0.000000E+00  0.000000E+00  0.000000E+00  0.000000E+00  0.000000E+00  0.000000E+00  0.000000E+00  0.000000E+00  0.000000E+00  0.000000E+00  0.000000E+00  0.000000E+00  0.000000E+00  0.000000E+00  0.000000E+00  0.000000E+00  0.000000E+00  0.000000E+00  0.000000E+00  0.000000E+00  0.000000E+00  0.000000E+00  0.000000E+00  0.000000E+00  0.000000E+00  0.000000E+00  0.000000E+00  0.000000E+00  0.000000E+00  0.000000E+00  0.000000E+00  0.000000E+00  0.000000E+00  0.000000E+00  0.000000E+00  0.000000E+00  0.000000E+00  0.000000E+00  0.000000E+00  0.000000E+00  0.000000E+00  0.000000E+00  0.000000E+00  0.000000E+00  0.000000E+00  0.000000E+00  0.000000E+00  0.000000E+00  0.000000E+00  0.000000E+00  0.000000E+00  0.000000E+00  0.000000E+00  0.000000E+00  0.000000E+00  0.000000E+00  0.000000E+00  0.000000E+00
</DataArray>
<DataArray type="Float64" Name="lQ" format="ascii">
  0.000000E+00  0.000000E+00  0.000000E+00  0.000000E+00  0.000000E+00  0.000000E+00  0.000000E+00  0.000000E+00  0.000000E+00  0.000000E+00  0.000000E+00  0.000000E+00  0.000000E+00  0.000000E+00  0.000000E+00  0.000000E+00  0.000000E+00  0.000000E+00  0.000000E+00  0.000000E+00  0.000000E+00  0.000000E+00  0.000000E+00  0.000000E+00  0.000000E+00  0.000000E+00  0.000000E+00  0.000000E+00  0.000000E+00  0.000000E+00  0.000000E+00  0.000000E+00  0.000000E+00  0.000000E+00  0.000000E+00  0.000000E+00  0.000000E+00  0.000000E+00  0.000000E+00  0.000000E+00  0.000000E+00  0.000000E+00  0.000000E+00  0.000000E+00  0.000000E+00  0.000000E+00  0.000000E+00  0.000000E+00  0.000000E+00  0.000000E+00  0.000000E+00  0.000000E+00  0.000000E+00  0.000000E+00  0.000000E+00  0.000000E+00  0.000000E+00  0.000000E+00  0.000000E+00  0.000000E+00  0.000000E+00  0.000000E+00  0.000000E+00  0.000000E+00
</DataArray>
<DataArray type="Float64" Name="cQ" format="ascii">
  0.000000E+00  0.000000E+00  0.000000E+00  0.000000E+00  0.000000E+00  0.000000E+00  0.000000E+00  0.000000E+00  0.000000E+00  0.000000E+00  0.000000E+00  0.000000E+00  0.000000E+00  0.000000E+00  0.000000E+00  0.000000E+00  0.000000E+00  0.000000E+00  0.000000E+00  0.000000E+00  0.000000E+00  0.000000E+00  0.000000E+00  0.000000E+00  0.000000E+00  0.000000E+00  0.000000E+00  0.000000E+00  0.000000E+00  0.000000E+00  0.000000E+00  0.000000E+00  0.000000E+00  0.000000E+00  0.000000E+00  0.000000E+00  0.000000E+00  0.000000E+00  0.000000E+00  0.000000E+00  0.000000E+00  0.000000E+00  0.000000E+00  0.000000E+00  0.000000E+00  0.000000E+00  0.000000E+00  0.000000E+00  0.000000E+00  0.000000E+00  0.000000E+00  0.000000E+00  0.000000E+00  0.000000E+00  0.000000E+00  0.000000E+00  0.000000E+00  0.000000E+00  0.000000E+00  0.000000E+00  0.000000E+00  0.000000E+00  0.000000E+00  0.000000E+00
</DataArray>
<DataArray type="Float64" Name="bQ" format="ascii">
  0.000000E+00  0.000000E+00  0.000000E+00  0.000000E+00  0.000000E+00  0.000000E+00  0.000000E+00  0.000000E+00  0.000000E+00  0.000000E+00  0.000000E+00  0.000000E+00  0.000000E+00  0.000000E+00  0.000000E+00  0.000000E+00  0.000000E+00  0.000000E+00  0.000000E+00  0.000000E+00  0.000000E+00  0.000000E+00  0.000000E+00  0.000000E+00  0.000000E+00  0.000000E+00  0.000000E+00  0.000000E+00  0.000000E+00  0.000000E+00  0.000000E+00  0.000000E+00  0.000000E+00  0.000000E+00  0.000000E+00  0.000000E+00  0.000000E+00  0.000000E+00  0.000000E+00  0.000000E+00  0.000000E+00  0.000000E+00  0.000000E+00  0.000000E+00  0.000000E+00  0.000000E+00  0.000000E+00  0.000000E+00  0.000000E+00  0.000000E+00  0.000000E+00  0.000000E+00  0.000000E+00  0.000000E+00  0.000000E+00  0.000000E+00  1.222000E-02  1.222000E-02  1.222000E-02  1.222000E-02  1.222000E-02  1.222000E-02  1.222000E-02  1.222000E-02
</DataArray>
<DataArray type="Float64" Name="rad" format="ascii">
  6.501391E+00  6.501527E+00  6.503269E+00  6.505999E+00  6.508422E+00  6.509472E+00  6.508559E+00  6.505122E+00  6.469070E+00  6.469220E+00  6.470641E+00  6.473144E+00  6.475312E+00  6.475855E+00  6.474248E+00  6.469334E+00  6.449539E+00  6.449935E+00  6.451670E+00  6.454304E+00  6.456701E+00  6.457293E+00  6.455907E+00  6.452320E+00  6.437642E+00  6.438670E+00  6.441441E+00  6.445063E+00  6.448035E+00  6.448411E+00  6.447684E+00  6.446112E+00  6.433218E+00  6.434735E+00  6.438389E+00  6.442553E+00  6.445864E+00  6.446648E+00  6.446214E+00  6.445336E+00  6.436850E+00  6.438517E+00  6.442087E+00  6.446477E+00  6.449841E+00  6.450852E+00  6.450757E+00  6.449134E+00  6.451557E+00  6.453321E+00  6.456855E+00  6.461287E+00  6.464967E+00  6.466413E+00  6.465703E+00  6.462235E+00  6.484746E+00  6.486767E+00  6.490515E+00  6.494842E+00  6.499043E+00  6.501770E+00  6.500853E+00  6.495940E+00
</DataArray>
<DataArray type="Float64" Name="HXR" format="ascii">
  0.000000E+00  0.000000E+00  0.000000E+00  0.000000E+00  0.000000E+00  0.000000E+00  0.000000E+00  0.000000E+00  0.000000E+00  0.000000E+00  0.000000E+00  0.000000E+00  0.000000E+00  0.000000E+00  0.000000E+00  0.000000E+00  0.000000E+00  0.000000E+00  0.000000E+00  0.000000E+00  0.000000E+00  0.000000E+00  0.000000E+00  0.000000E+00  0.000000E+00  0.000000E+00  0.000000E+00  0.000000E+00  0.000000E+00  0.000000E+00  0.000000E+00  0.000000E+00  0.000000E+00  0.000000E+00  0.000000E+00  0.000000E+00  0.000000E+00  0.000000E+00  0.000000E+00  0.000000E+00  0.000000E+00  0.000000E+00  0.000000E+00  0.000000E+00  0.000000E+00  0.000000E+00  0.000000E+00  0.000000E+00  0.000000E+00  0.000000E+00  0.000000E+00  0.000000E+00  0.000000E+00  0.000000E+00  0.000000E+00  0.000000E+00  0.000000E+00  0.000000E+00  0.000000E+00  0.000000E+00  0.000000E+00  0.000000E+00  0.000000E+00  0.000000E+00
</DataArray>
<DataArray type="Float64" Name="E1" format="ascii">
 -7.460290E-06 -7.343656E-06 -7.313064E-06 -7.331307E-06 -7.360416E-06 -7.375325E-06 -7.347665E-06 -7.269559E-06 -1.074390E-05 -1.066129E-05 -1.065623E-05 -1.071449E-05 -1.079658E-05 -1.084590E-05 -1.076607E-05 -1.048027E-05 -1.336341E-05 -1.333930E-05 -1.338932E-05 -1.353600E-05 -1.372199E-05 -1.384072E-05 -1.375854E-05 -1.328655E-05 -1.517364E-05 -1.523380E-05 -1.538988E-05 -1.566451E-05 -1.601795E-05 -1.633100E-05 -1.639055E-05 -1.592970E-05 -1.637193E-05 -1.653209E-05 -1.680414E-05 -1.727876E-05 -1.791397E-05 -1.851466E-05 -1.885820E-05 -1.867267E-05 -1.693136E-05 -1.723655E-05 -1.775556E-05 -1.850482E-05 -1.943540E-05 -2.042296E-05 -2.124270E-05 -2.167625E-05 -1.706775E-05 -1.747691E-05 -1.814859E-05 -1.916895E-05 -2.045539E-05 -2.185309E-05 -2.326262E-05 -2.462027E-05 -1.658714E-05 -1.712437E-05 -1.797459E-05 -1.922319E-05 -2.081385E-05 -2.258646E-05 -2.456681E-05 -2.708017E-05
</DataArray>
<DataArray type="Float64" Name="E2" format="ascii">
 -1.103129E-06 -3.126391E-06 -5.234652E-06 -7.234249E-06 -8.962067E-06 -1.027042E-05 -1.111611E-05 -1.160773E-05 -1.076282E-06 -3.057346E-06 -5.160241E-06 -7.138460E-06 -8.859201E-06 -1.022712E-05 -1.119009E-05 -1.186415E-05 -1.027531E-06 -2.984187E-06 -5.014222E-06 -6.943967E-06 -8.679405E-06 -1.013443E-05 -1.137952E-05 -1.245314E-05 -9.523687E-07 -2.864545E-06 -4.772907E-06 -6.629933E-06 -8.375691E-06 -9.957325E-06 -1.155220E-05 -1.323613E-05 -8.475122E-07 -2.647331E-06 -4.398471E-06 -6.140306E-06 -7.871371E-06 -9.605178E-06 -1.156282E-05 -1.393411E-05 -7.086877E-07 -2.317217E-06 -3.864998E-06 -5.438131E-06 -7.083991E-06 -8.896596E-06 -1.108247E-05 -1.404966E-05 -5.256541E-07 -1.812638E-06 -3.054843E-06 -4.376055E-06 -5.861567E-06 -7.665320E-06 -9.932069E-06 -1.324131E-05 -3.040432E-07 -1.164104E-06 -1.998415E-06 -2.982102E-06 -4.204232E-06 -5.813484E-06 -7.888218E-06 -1.125689E-05
</DataArray>
<DataArray type="Float64" Name="E3" format="ascii">
  1.103186E-05  3.126864E-05  5.235737E-05  7.235894E-05  8.964045E-05  1.027244E-04  1.111789E-04  1.160908E-04  1.076344E-05  3.057812E-05  5.161315E-05  7.140085E-05  8.861138E-05  1.022905E-04  1.119169E-04  1.186517E-04  1.027615E-05  2.984683E-05  5.015337E-05  6.945652E-05  8.681429E-05  1.013646E-04  1.138117E-04  1.245405E-04  9.524959E-06  2.865105E-05  4.774116E-05  6.631769E-05  8.377966E-05  9.959703E-05  1.155432E-04  1.323747E-04  8.477076E-06  2.647988E-05  4.399830E-05  6.142397E-05  7.874081E-05  9.608238E-05  1.156595E-04  1.393675E-04  7.089824E-06  2.318011E-05  3.866578E-05  5.440606E-05  7.087351E-05  8.900714E-05  1.108723E-04  1.405478E-04  5.260818E-06  1.813602E-05  3.056687E-05  4.379005E-05  5.865771E-05  7.670880E-05  9.939190E-05  1.325031E-04  3.046201E-06  1.165250E-05  2.000542E-05  2.985575E-05  4.209397E-05  5.820714E-05  7.898163E-05  1.127095E-04
</DataArray>
<DataArray type="Float64" Name="SXR" format="ascii">
  0.000000E+00  0.000000E+00  0.000000E+00  0.000000E+00  0.000000E+00  0.000000E+00  0.000000E+00  0.000000E+00  0.000000E+00  0.000000E+00  0.000000E+00  0.000000E+00  0.000000E+00  0.000000E+00  0.000000E+00  0.000000E+00  0.000000E+00  0.000000E+00  0.000000E+00  0.000000E+00  0.000000E+00  0.000000E+00  0.000000E+00  0.000000E+00  0.000000E+00  0.000000E+00  0.000000E+00  0.000000E+00  0.000000E+00  0.000000E+00  0.000000E+00  0.000000E+00  0.000000E+00  0.000000E+00  0.000000E+00  0.000000E+00  0.000000E+00  0.000000E+00  0.000000E+00  0.000000E+00  0.000000E+00  0.000000E+00  0.000000E+00  0.000000E+00  0.000000E+00  0.000000E+00  0.000000E+00  0.000000E+00  0.000000E+00  0.000000E+00  0.000000E+00  0.000000E+00  0.000000E+00  0.000000E+00  0.000000E+00  0.000000E+00  0.000000E+00  0.000000E+00  0.000000E+00  0.000000E+00  0.000000E+00  0.000000E+00  0.000000E+00  0.000000E+00
</DataArray>
<DataArray type="Float64" Name="RF" format="ascii">
  0.000000E+00  0.000000E+00  0.000000E+00  0.000000E+00  0.000000E+00  0.000000E+00  0.000000E+00  0.000000E+00  0.000000E+00  0.000000E+00  0.000000E+00  0.000000E+00  0.000000E+00  0.000000E+00  0.000000E+00  0.000000E+00  0.000000E+00  0.000000E+00  0.000000E+00  0.000000E+00  0.000000E+00  0.000000E+00  0.000000E+00  0.000000E+00  0.000000E+00  0.000000E+00  0.000000E+00  0.000000E+00  0.000000E+00  0.000000E+00  0.000000E+00  0.000000E+00  0.000000E+00  0.000000E+00  0.000000E+00  0.000000E+00  0.000000E+00  0.000000E+00  0.000000E+00  0.000000E+00  0.000000E+00  0.000000E+00  0.000000E+00  0.000000E+00  0.000000E+00  0.000000E+00  0.000000E+00  0.000000E+00  0.000000E+00  0.000000E+00  0.000000E+00  0.000000E+00  0.000000E+00  0.000000E+00  0.000000E+00  0.000000E+00  0.000000E+00  0.000000E+00  0.000000E+00  0.000000E+00  0.000000E+00  0.000000E+00  0.000000E+00  0.000000E+00
</DataArray>
<DataArray type="Float64" Name="divV" format="ascii">
  2.695470E-05  2.778949E-05  2.815582E-05  3.181603E-05  3.831715E-05  4.603480E-05  5.151743E-05  5.375953E-05  1.452162E-05  1.505231E-05  1.541939E-05  1.959679E-05  2.601229E-05  3.323296E-05  3.851816E-05  4.072342E-05  2.928215E-06  3.491174E-06  4.594935E-06  8.679854E-06  1.486721E-05  2.115883E-05  2.545019E-05  2.731274E-05 -7.556697E-06 -6.999295E-06 -5.238397E-06 -1.379610E-06  4.634319E-06  9.946183E-06  1.262954E-05  1.377792E-05 -1.553440E-05 -1.504550E-05 -1.211518E-05 -8.176850E-06 -3.206522E-06  7.482558E-07  1.900715E-06  2.310319E-06 -2.066226E-05 -2.093949E-05 -1.793248E-05 -1.426389E-05 -1.045954E-05 -7.623456E-06 -7.904085E-06 -8.391570E-06 -2.371740E-05 -2.474786E-05 -2.294644E-05 -2.079480E-05 -1.861359E-05 -1.716515E-05 -1.897646E-05 -1.986455E-05 -2.454135E-05 -2.616668E-05 -2.561164E-05 -2.588234E-05 -2.605763E-05 -2.573420E-05 -2.904457E-05 -2.980636E-05
</DataArray>
</CellData>
<Points>
<DataArray type="Float32" NumberOfComponents="3" format="ascii">
 -5.000000E-01  0.000000E+00  0.000000E+00
 -4.687500E-01  0.000000E+00  0.000000E+00
 -4.375000E-01  0.000000E+00  0.000000E+00
 -4.062500E-01  0.000000E+00  0.000000E+00
 -3.750000E-01  0.000000E+00  0.000000E+00
 -3.437500E-01  0.000000E+00  0.000000E+00
 -3.125000E-01  0.000000E+00  0.000000E+00
 -2.812500E-01  0.000000E+00  0.000000E+00
 -2.500000E-01  0.000000E+00  0.000000E+00
 -5.000000E-01  3.125000E-02  0.000000E+00
 -4.687500E-01  3.125000E-02  0.000000E+00
 -4.375000E-01  3.125000E-02  0.000000E+00
 -4.062500E-01  3.125000E-02  0.000000E+00
 -3.750000E-01  3.125000E-02  0.000000E+00
 -3.437500E-01  3.125000E-02  0.000000E+00
 -3.125000E-01  3.125000E-02  0.000000E+00
 -2.812500E-01  3.125000E-02  0.000000E+00
 -2.500000E-01  3.125000E-02  0.000000E+00
 -5.000000E-01  6.250000E-02  0.000000E+00
 -4.687500E-01  6.250000E-02  0.000000E+00
 -4.375000E-01  6.250000E-02  0.000000E+00
 -4.062500E-01  6.250000E-02  0.000000E+00
 -3.750000E-01  6.250000E-02  0.000000E+00
 -3.437500E-01  6.250000E-02  0.000000E+00
 -3.125000E-01  6.250000E-02  0.000000E+00
 -2.812500E-01  6.250000E-02  0.000000E+00
 -2.500000E-01  6.250000E-02  0.000000E+00
 -5.000000E-01  9.375000E-02  0.000000E+00
 -4.687500E-01  9.375000E-02  0.000000E+00
 -4.375000E-01  9.375000E-02  0.000000E+00
 -4.062500E-01  9.375000E-02  0.000000E+00
 -3.750000E-01  9.375000E-02  0.000000E+00
 -3.437500E-01  9.375000E-02  0.000000E+00
 -3.125000E-01  9.375000E-02  0.000000E+00
 -2.812500E-01  9.375000E-02  0.000000E+00
 -2.500000E-01  9.375000E-02  0.000000E+00
 -5.000000E-01  1.250000E-01  0.000000E+00
 -4.687500E-01  1.250000E-01  0.000000E+00
 -4.375000E-01  1.250000E-01  0.000000E+00
 -4.062500E-01  1.250000E-01  0.000000E+00
 -3.750000E-01  1.250000E-01  0.000000E+00
 -3.437500E-01  1.250000E-01  0.000000E+00
 -3.125000E-01  1.250000E-01  0.000000E+00
 -2.812500E-01  1.250000E-01  0.000000E+00
 -2.500000E-01  1.250000E-01  0.000000E+00
 -5.000000E-01  1.562500E-01  0.000000E+00
 -4.687500E-01  1.562500E-01  0.000000E+00
 -4.375000E-01  1.562500E-01  0.000000E+00
 -4.062500E-01  1.562500E-01  0.000000E+00
 -3.750000E-01  1.562500E-01  0.000000E+00
 -3.437500E-01  1.562500E-01  0.000000E+00
 -3.125000E-01  1.562500E-01  0.000000E+00
 -2.812500E-01  1.562500E-01  0.000000E+00
 -2.500000E-01  1.562500E-01  0.000000E+00
 -5.000000E-01  1.875000E-01  0.000000E+00
 -4.687500E-01  1.875000E-01  0.000000E+00
 -4.375000E-01  1.875000E-01  0.000000E+00
 -4.062500E-01  1.875000E-01  0.000000E+00
 -3.750000E-01  1.875000E-01  0.000000E+00
 -3.437500E-01  1.875000E-01  0.000000E+00
 -3.125000E-01  1.875000E-01  0.000000E+00
 -2.812500E-01  1.875000E-01  0.000000E+00
 -2.500000E-01  1.875000E-01  0.000000E+00
 -5.000000E-01  2.187500E-01  0.000000E+00
 -4.687500E-01  2.187500E-01  0.000000E+00
 -4.375000E-01  2.187500E-01  0.000000E+00
 -4.062500E-01  2.187500E-01  0.000000E+00
 -3.750000E-01  2.187500E-01  0.000000E+00
 -3.437500E-01  2.187500E-01  0.000000E+00
 -3.125000E-01  2.187500E-01  0.000000E+00
 -2.812500E-01  2.187500E-01  0.000000E+00
 -2.500000E-01  2.187500E-01  0.000000E+00
 -5.000000E-01  2.500000E-01  0.000000E+00
 -4.687500E-01  2.500000E-01  0.000000E+00
 -4.375000E-01  2.500000E-01  0.000000E+00
 -4.062500E-01  2.500000E-01  0.000000E+00
 -3.750000E-01  2.500000E-01  0.000000E+00
 -3.437500E-01  2.500000E-01  0.000000E+00
 -3.125000E-01  2.500000E-01  0.000000E+00
 -2.812500E-01  2.500000E-01  0.000000E+00
 -2.500000E-01  2.500000E-01  0.000000E+00
</DataArray>
</Points>
<Cells>
<DataArray type="Int32" Name="connectivity" format="ascii">
      0       1       9      10